ITEM: TIMESTEP


1536 atoms 
2 atom types


0.0000000000000000e+00 2.4800000000000001e+01 xlo xhi 
0.0000000000000000e+00 2.4800000000000001e+01 ylo yhi
0.0000000000000000e+00 2.4800000000000001e+01 zlo zhi
0.0 0.0 0.0 xy xz yz

Atoms # metal 

1 1 0.519737 1.55 1.55 1.5 
2 2 -0.259868 1.55 2.36649 2.07736 
3 2 -0.259868 1.55 0.73351 2.07736 
193 1 0.519737 1.55 1.55 4.6 
194 2 -0.259868 1.55 2.36649 5.17736 
195 2 -0.259868 1.55 0.73351 5.17736 
385 1 0.519737 1.55 1.55 7.7 
386 2 -0.259868 1.55 2.36649 8.27736 
387 2 -0.259868 1.55 0.73351 8.27736 
577 1 0.519737 1.55 1.55 10.8 
578 2 -0.259868 1.55 2.36649 11.3774 
579 2 -0.259868 1.55 0.73351 11.3774 
769 1 0.519737 1.55 1.55 13.9 
770 2 -0.259868 1.55 2.36649 14.4774 
771 2 -0.259868 1.55 0.73351 14.4774 
961 1 0.519737 1.55 1.55 17 
962 2 -0.259868 1.55 2.36649 17.5774 
963 2 -0.259868 1.55 0.73351 17.5774 
1153 1 0.519737 1.55 1.55 20.1 
1154 2 -0.259868 1.55 2.36649 20.6774 
1155 2 -0.259868 1.55 0.73351 20.6774 
1345 1 0.519737 1.55 1.55 23.2 
1346 2 -0.259868 1.55 2.36649 23.7774 
1347 2 -0.259868 1.55 0.73351 23.7774 
25 1 0.519737 1.55 4.65 1.5 
26 2 -0.259868 1.55 5.46649 2.07736 
27 2 -0.259868 1.55 3.83351 2.07736 
217 1 0.519737 1.55 4.65 4.6 
218 2 -0.259868 1.55 5.46649 5.17736 
219 2 -0.259868 1.55 3.83351 5.17736 
409 1 0.519737 1.55 4.65 7.7 
410 2 -0.259868 1.55 5.46649 8.27736 
411 2 -0.259868 1.55 3.83351 8.27736 
601 1 0.519737 1.55 4.65 10.8 
602 2 -0.259868 1.55 5.46649 11.3774 
603 2 -0.259868 1.55 3.83351 11.3774 
793 1 0.519737 1.55 4.65 13.9 
794 2 -0.259868 1.55 5.46649 14.4774 
795 2 -0.259868 1.55 3.83351 14.4774 
985 1 0.519737 1.55 4.65 17 
986 2 -0.259868 1.55 5.46649 17.5774 
987 2 -0.259868 1.55 3.83351 17.5774 
1177 1 0.519737 1.55 4.65 20.1 
1178 2 -0.259868 1.55 5.46649 20.6774 
1179 2 -0.259868 1.55 3.83351 20.6774 
1369 1 0.519737 1.55 4.65 23.2 
1370 2 -0.259868 1.55 5.46649 23.7774 
1371 2 -0.259868 1.55 3.83351 23.7774 
49 1 0.519737 1.55 7.75 1.5 
50 2 -0.259868 1.55 8.56649 2.07736 
51 2 -0.259868 1.55 6.93351 2.07736 
241 1 0.519737 1.55 7.75 4.6 
242 2 -0.259868 1.55 8.56649 5.17736 
243 2 -0.259868 1.55 6.93351 5.17736 
433 1 0.519737 1.55 7.75 7.7 
434 2 -0.259868 1.55 8.56649 8.27736 
435 2 -0.259868 1.55 6.93351 8.27736 
625 1 0.519737 1.55 7.75 10.8 
626 2 -0.259868 1.55 8.56649 11.3774 
627 2 -0.259868 1.55 6.93351 11.3774 
817 1 0.519737 1.55 7.75 13.9 
818 2 -0.259868 1.55 8.56649 14.4774 
819 2 -0.259868 1.55 6.93351 14.4774 
1009 1 0.519737 1.55 7.75 17 
1010 2 -0.259868 1.55 8.56649 17.5774 
1011 2 -0.259868 1.55 6.93351 17.5774 
1201 1 0.519737 1.55 7.75 20.1 
1202 2 -0.259868 1.55 8.56649 20.6774 
1203 2 -0.259868 1.55 6.93351 20.6774 
1393 1 0.519737 1.55 7.75 23.2 
1394 2 -0.259868 1.55 8.56649 23.7774 
1395 2 -0.259868 1.55 6.93351 23.7774 
73 1 0.519737 1.55 10.85 1.5 
74 2 -0.259868 1.55 11.6665 2.07736 
75 2 -0.259868 1.55 10.0335 2.07736 
265 1 0.519737 1.55 10.85 4.6 
266 2 -0.259868 1.55 11.6665 5.17736 
267 2 -0.259868 1.55 10.0335 5.17736 
457 1 0.519737 1.55 10.85 7.7 
458 2 -0.259868 1.55 11.6665 8.27736 
459 2 -0.259868 1.55 10.0335 8.27736 
649 1 0.519737 1.55 10.85 10.8 
650 2 -0.259868 1.55 11.6665 11.3774 
651 2 -0.259868 1.55 10.0335 11.3774 
841 1 0.519737 1.55 10.85 13.9 
842 2 -0.259868 1.55 11.6665 14.4774 
843 2 -0.259868 1.55 10.0335 14.4774 
1033 1 0.519737 1.55 10.85 17 
1034 2 -0.259868 1.55 11.6665 17.5774 
1035 2 -0.259868 1.55 10.0335 17.5774 
1225 1 0.519737 1.55 10.85 20.1 
1226 2 -0.259868 1.55 11.6665 20.6774 
1227 2 -0.259868 1.55 10.0335 20.6774 
1417 1 0.519737 1.55 10.85 23.2 
1418 2 -0.259868 1.55 11.6665 23.7774 
1419 2 -0.259868 1.55 10.0335 23.7774 
97 1 0.519737 1.55 13.95 1.5 
98 2 -0.259868 1.55 14.7665 2.07736 
99 2 -0.259868 1.55 13.1335 2.07736 
289 1 0.519737 1.55 13.95 4.6 
290 2 -0.259868 1.55 14.7665 5.17736 
291 2 -0.259868 1.55 13.1335 5.17736 
481 1 0.519737 1.55 13.95 7.7 
482 2 -0.259868 1.55 14.7665 8.27736 
483 2 -0.259868 1.55 13.1335 8.27736 
673 1 0.519737 1.55 13.95 10.8 
674 2 -0.259868 1.55 14.7665 11.3774 
675 2 -0.259868 1.55 13.1335 11.3774 
865 1 0.519737 1.55 13.95 13.9 
866 2 -0.259868 1.55 14.7665 14.4774 
867 2 -0.259868 1.55 13.1335 14.4774 
1057 1 0.519737 1.55 13.95 17 
1058 2 -0.259868 1.55 14.7665 17.5774 
1059 2 -0.259868 1.55 13.1335 17.5774 
1249 1 0.519737 1.55 13.95 20.1 
1250 2 -0.259868 1.55 14.7665 20.6774 
1251 2 -0.259868 1.55 13.1335 20.6774 
1441 1 0.519737 1.55 13.95 23.2 
1442 2 -0.259868 1.55 14.7665 23.7774 
1443 2 -0.259868 1.55 13.1335 23.7774 
121 1 0.519737 1.55 17.05 1.5 
122 2 -0.259868 1.55 17.8665 2.07736 
123 2 -0.259868 1.55 16.2335 2.07736 
313 1 0.519737 1.55 17.05 4.6 
314 2 -0.259868 1.55 17.8665 5.17736 
315 2 -0.259868 1.55 16.2335 5.17736 
505 1 0.519737 1.55 17.05 7.7 
506 2 -0.259868 1.55 17.8665 8.27736 
507 2 -0.259868 1.55 16.2335 8.27736 
697 1 0.519737 1.55 17.05 10.8 
698 2 -0.259868 1.55 17.8665 11.3774 
699 2 -0.259868 1.55 16.2335 11.3774 
889 1 0.519737 1.55 17.05 13.9 
890 2 -0.259868 1.55 17.8665 14.4774 
891 2 -0.259868 1.55 16.2335 14.4774 
1081 1 0.519737 1.55 17.05 17 
1082 2 -0.259868 1.55 17.8665 17.5774 
1083 2 -0.259868 1.55 16.2335 17.5774 
1273 1 0.519737 1.55 17.05 20.1 
1274 2 -0.259868 1.55 17.8665 20.6774 
1275 2 -0.259868 1.55 16.2335 20.6774 
1465 1 0.519737 1.55 17.05 23.2 
1466 2 -0.259868 1.55 17.8665 23.7774 
1467 2 -0.259868 1.55 16.2335 23.7774 
145 1 0.519737 1.55 20.15 1.5 
146 2 -0.259868 1.55 20.9665 2.07736 
147 2 -0.259868 1.55 19.3335 2.07736 
337 1 0.519737 1.55 20.15 4.6 
338 2 -0.259868 1.55 20.9665 5.17736 
339 2 -0.259868 1.55 19.3335 5.17736 
529 1 0.519737 1.55 20.15 7.7 
530 2 -0.259868 1.55 20.9665 8.27736 
531 2 -0.259868 1.55 19.3335 8.27736 
721 1 0.519737 1.55 20.15 10.8 
722 2 -0.259868 1.55 20.9665 11.3774 
723 2 -0.259868 1.55 19.3335 11.3774 
913 1 0.519737 1.55 20.15 13.9 
914 2 -0.259868 1.55 20.9665 14.4774 
915 2 -0.259868 1.55 19.3335 14.4774 
1105 1 0.519737 1.55 20.15 17 
1106 2 -0.259868 1.55 20.9665 17.5774 
1107 2 -0.259868 1.55 19.3335 17.5774 
1297 1 0.519737 1.55 20.15 20.1 
1298 2 -0.259868 1.55 20.9665 20.6774 
1299 2 -0.259868 1.55 19.3335 20.6774 
1489 1 0.519737 1.55 20.15 23.2 
1490 2 -0.259868 1.55 20.9665 23.7774 
1491 2 -0.259868 1.55 19.3335 23.7774 
169 1 0.519737 1.55 23.25 1.5 
170 2 -0.259868 1.55 24.0665 2.07736 
171 2 -0.259868 1.55 22.4335 2.07736 
361 1 0.519737 1.55 23.25 4.6 
362 2 -0.259868 1.55 24.0665 5.17736 
363 2 -0.259868 1.55 22.4335 5.17736 
553 1 0.519737 1.55 23.25 7.7 
554 2 -0.259868 1.55 24.0665 8.27736 
555 2 -0.259868 1.55 22.4335 8.27736 
745 1 0.519737 1.55 23.25 10.8 
746 2 -0.259868 1.55 24.0665 11.3774 
747 2 -0.259868 1.55 22.4335 11.3774 
937 1 0.519737 1.55 23.25 13.9 
938 2 -0.259868 1.55 24.0665 14.4774 
939 2 -0.259868 1.55 22.4335 14.4774 
1129 1 0.519737 1.55 23.25 17 
1130 2 -0.259868 1.55 24.0665 17.5774 
1131 2 -0.259868 1.55 22.4335 17.5774 
1321 1 0.519737 1.55 23.25 20.1 
1322 2 -0.259868 1.55 24.0665 20.6774 
1323 2 -0.259868 1.55 22.4335 20.6774 
1513 1 0.519737 1.55 23.25 23.2 
1514 2 -0.259868 1.55 24.0665 23.7774 
1515 2 -0.259868 1.55 22.4335 23.7774 
4 1 0.519737 4.65 1.55 1.5 
5 2 -0.259868 4.65 2.36649 2.07736 
6 2 -0.259868 4.65 0.73351 2.07736 
196 1 0.519737 4.65 1.55 4.6 
197 2 -0.259868 4.65 2.36649 5.17736 
198 2 -0.259868 4.65 0.73351 5.17736 
388 1 0.519737 4.65 1.55 7.7 
389 2 -0.259868 4.65 2.36649 8.27736 
390 2 -0.259868 4.65 0.73351 8.27736 
580 1 0.519737 4.65 1.55 10.8 
581 2 -0.259868 4.65 2.36649 11.3774 
582 2 -0.259868 4.65 0.73351 11.3774 
772 1 0.519737 4.65 1.55 13.9 
773 2 -0.259868 4.65 2.36649 14.4774 
774 2 -0.259868 4.65 0.73351 14.4774 
964 1 0.519737 4.65 1.55 17 
965 2 -0.259868 4.65 2.36649 17.5774 
966 2 -0.259868 4.65 0.73351 17.5774 
1156 1 0.519737 4.65 1.55 20.1 
1157 2 -0.259868 4.65 2.36649 20.6774 
1158 2 -0.259868 4.65 0.73351 20.6774 
1348 1 0.519737 4.65 1.55 23.2 
1349 2 -0.259868 4.65 2.36649 23.7774 
1350 2 -0.259868 4.65 0.73351 23.7774 
28 1 0.519737 4.65 4.65 1.5 
29 2 -0.259868 4.65 5.46649 2.07736 
30 2 -0.259868 4.65 3.83351 2.07736 
220 1 0.519737 4.65 4.65 4.6 
221 2 -0.259868 4.65 5.46649 5.17736 
222 2 -0.259868 4.65 3.83351 5.17736 
412 1 0.519737 4.65 4.65 7.7 
413 2 -0.259868 4.65 5.46649 8.27736 
414 2 -0.259868 4.65 3.83351 8.27736 
604 1 0.519737 4.65 4.65 10.8 
605 2 -0.259868 4.65 5.46649 11.3774 
606 2 -0.259868 4.65 3.83351 11.3774 
796 1 0.519737 4.65 4.65 13.9 
797 2 -0.259868 4.65 5.46649 14.4774 
798 2 -0.259868 4.65 3.83351 14.4774 
988 1 0.519737 4.65 4.65 17 
989 2 -0.259868 4.65 5.46649 17.5774 
990 2 -0.259868 4.65 3.83351 17.5774 
1180 1 0.519737 4.65 4.65 20.1 
1181 2 -0.259868 4.65 5.46649 20.6774 
1182 2 -0.259868 4.65 3.83351 20.6774 
1372 1 0.519737 4.65 4.65 23.2 
1373 2 -0.259868 4.65 5.46649 23.7774 
1374 2 -0.259868 4.65 3.83351 23.7774 
52 1 0.519737 4.65 7.75 1.5 
53 2 -0.259868 4.65 8.56649 2.07736 
54 2 -0.259868 4.65 6.93351 2.07736 
244 1 0.519737 4.65 7.75 4.6 
245 2 -0.259868 4.65 8.56649 5.17736 
246 2 -0.259868 4.65 6.93351 5.17736 
436 1 0.519737 4.65 7.75 7.7 
437 2 -0.259868 4.65 8.56649 8.27736 
438 2 -0.259868 4.65 6.93351 8.27736 
628 1 0.519737 4.65 7.75 10.8 
629 2 -0.259868 4.65 8.56649 11.3774 
630 2 -0.259868 4.65 6.93351 11.3774 
820 1 0.519737 4.65 7.75 13.9 
821 2 -0.259868 4.65 8.56649 14.4774 
822 2 -0.259868 4.65 6.93351 14.4774 
1012 1 0.519737 4.65 7.75 17 
1013 2 -0.259868 4.65 8.56649 17.5774 
1014 2 -0.259868 4.65 6.93351 17.5774 
1204 1 0.519737 4.65 7.75 20.1 
1205 2 -0.259868 4.65 8.56649 20.6774 
1206 2 -0.259868 4.65 6.93351 20.6774 
1396 1 0.519737 4.65 7.75 23.2 
1397 2 -0.259868 4.65 8.56649 23.7774 
1398 2 -0.259868 4.65 6.93351 23.7774 
76 1 0.519737 4.65 10.85 1.5 
77 2 -0.259868 4.65 11.6665 2.07736 
78 2 -0.259868 4.65 10.0335 2.07736 
268 1 0.519737 4.65 10.85 4.6 
269 2 -0.259868 4.65 11.6665 5.17736 
270 2 -0.259868 4.65 10.0335 5.17736 
460 1 0.519737 4.65 10.85 7.7 
461 2 -0.259868 4.65 11.6665 8.27736 
462 2 -0.259868 4.65 10.0335 8.27736 
652 1 0.519737 4.65 10.85 10.8 
653 2 -0.259868 4.65 11.6665 11.3774 
654 2 -0.259868 4.65 10.0335 11.3774 
844 1 0.519737 4.65 10.85 13.9 
845 2 -0.259868 4.65 11.6665 14.4774 
846 2 -0.259868 4.65 10.0335 14.4774 
1036 1 0.519737 4.65 10.85 17 
1037 2 -0.259868 4.65 11.6665 17.5774 
1038 2 -0.259868 4.65 10.0335 17.5774 
1228 1 0.519737 4.65 10.85 20.1 
1229 2 -0.259868 4.65 11.6665 20.6774 
1230 2 -0.259868 4.65 10.0335 20.6774 
1420 1 0.519737 4.65 10.85 23.2 
1421 2 -0.259868 4.65 11.6665 23.7774 
1422 2 -0.259868 4.65 10.0335 23.7774 
100 1 0.519737 4.65 13.95 1.5 
101 2 -0.259868 4.65 14.7665 2.07736 
102 2 -0.259868 4.65 13.1335 2.07736 
292 1 0.519737 4.65 13.95 4.6 
293 2 -0.259868 4.65 14.7665 5.17736 
294 2 -0.259868 4.65 13.1335 5.17736 
484 1 0.519737 4.65 13.95 7.7 
485 2 -0.259868 4.65 14.7665 8.27736 
486 2 -0.259868 4.65 13.1335 8.27736 
676 1 0.519737 4.65 13.95 10.8 
677 2 -0.259868 4.65 14.7665 11.3774 
678 2 -0.259868 4.65 13.1335 11.3774 
868 1 0.519737 4.65 13.95 13.9 
869 2 -0.259868 4.65 14.7665 14.4774 
870 2 -0.259868 4.65 13.1335 14.4774 
1060 1 0.519737 4.65 13.95 17 
1061 2 -0.259868 4.65 14.7665 17.5774 
1062 2 -0.259868 4.65 13.1335 17.5774 
1252 1 0.519737 4.65 13.95 20.1 
1253 2 -0.259868 4.65 14.7665 20.6774 
1254 2 -0.259868 4.65 13.1335 20.6774 
1444 1 0.519737 4.65 13.95 23.2 
1445 2 -0.259868 4.65 14.7665 23.7774 
1446 2 -0.259868 4.65 13.1335 23.7774 
124 1 0.519737 4.65 17.05 1.5 
125 2 -0.259868 4.65 17.8665 2.07736 
126 2 -0.259868 4.65 16.2335 2.07736 
316 1 0.519737 4.65 17.05 4.6 
317 2 -0.259868 4.65 17.8665 5.17736 
318 2 -0.259868 4.65 16.2335 5.17736 
508 1 0.519737 4.65 17.05 7.7 
509 2 -0.259868 4.65 17.8665 8.27736 
510 2 -0.259868 4.65 16.2335 8.27736 
700 1 0.519737 4.65 17.05 10.8 
701 2 -0.259868 4.65 17.8665 11.3774 
702 2 -0.259868 4.65 16.2335 11.3774 
892 1 0.519737 4.65 17.05 13.9 
893 2 -0.259868 4.65 17.8665 14.4774 
894 2 -0.259868 4.65 16.2335 14.4774 
1084 1 0.519737 4.65 17.05 17 
1085 2 -0.259868 4.65 17.8665 17.5774 
1086 2 -0.259868 4.65 16.2335 17.5774 
1276 1 0.519737 4.65 17.05 20.1 
1277 2 -0.259868 4.65 17.8665 20.6774 
1278 2 -0.259868 4.65 16.2335 20.6774 
1468 1 0.519737 4.65 17.05 23.2 
1469 2 -0.259868 4.65 17.8665 23.7774 
1470 2 -0.259868 4.65 16.2335 23.7774 
148 1 0.519737 4.65 20.15 1.5 
149 2 -0.259868 4.65 20.9665 2.07736 
150 2 -0.259868 4.65 19.3335 2.07736 
340 1 0.519737 4.65 20.15 4.6 
341 2 -0.259868 4.65 20.9665 5.17736 
342 2 -0.259868 4.65 19.3335 5.17736 
532 1 0.519737 4.65 20.15 7.7 
533 2 -0.259868 4.65 20.9665 8.27736 
534 2 -0.259868 4.65 19.3335 8.27736 
724 1 0.519737 4.65 20.15 10.8 
725 2 -0.259868 4.65 20.9665 11.3774 
726 2 -0.259868 4.65 19.3335 11.3774 
916 1 0.519737 4.65 20.15 13.9 
917 2 -0.259868 4.65 20.9665 14.4774 
918 2 -0.259868 4.65 19.3335 14.4774 
1108 1 0.519737 4.65 20.15 17 
1109 2 -0.259868 4.65 20.9665 17.5774 
1110 2 -0.259868 4.65 19.3335 17.5774 
1300 1 0.519737 4.65 20.15 20.1 
1301 2 -0.259868 4.65 20.9665 20.6774 
1302 2 -0.259868 4.65 19.3335 20.6774 
1492 1 0.519737 4.65 20.15 23.2 
1493 2 -0.259868 4.65 20.9665 23.7774 
1494 2 -0.259868 4.65 19.3335 23.7774 
172 1 0.519737 4.65 23.25 1.5 
173 2 -0.259868 4.65 24.0665 2.07736 
174 2 -0.259868 4.65 22.4335 2.07736 
364 1 0.519737 4.65 23.25 4.6 
365 2 -0.259868 4.65 24.0665 5.17736 
366 2 -0.259868 4.65 22.4335 5.17736 
556 1 0.519737 4.65 23.25 7.7 
557 2 -0.259868 4.65 24.0665 8.27736 
558 2 -0.259868 4.65 22.4335 8.27736 
748 1 0.519737 4.65 23.25 10.8 
749 2 -0.259868 4.65 24.0665 11.3774 
750 2 -0.259868 4.65 22.4335 11.3774 
940 1 0.519737 4.65 23.25 13.9 
941 2 -0.259868 4.65 24.0665 14.4774 
942 2 -0.259868 4.65 22.4335 14.4774 
1132 1 0.519737 4.65 23.25 17 
1133 2 -0.259868 4.65 24.0665 17.5774 
1134 2 -0.259868 4.65 22.4335 17.5774 
1324 1 0.519737 4.65 23.25 20.1 
1325 2 -0.259868 4.65 24.0665 20.6774 
1326 2 -0.259868 4.65 22.4335 20.6774 
1516 1 0.519737 4.65 23.25 23.2 
1517 2 -0.259868 4.65 24.0665 23.7774 
1518 2 -0.259868 4.65 22.4335 23.7774 
7 1 0.519737 7.75 1.55 1.5 
8 2 -0.259868 7.75 2.36649 2.07736 
9 2 -0.259868 7.75 0.73351 2.07736 
199 1 0.519737 7.75 1.55 4.6 
200 2 -0.259868 7.75 2.36649 5.17736 
201 2 -0.259868 7.75 0.73351 5.17736 
391 1 0.519737 7.75 1.55 7.7 
392 2 -0.259868 7.75 2.36649 8.27736 
393 2 -0.259868 7.75 0.73351 8.27736 
583 1 0.519737 7.75 1.55 10.8 
584 2 -0.259868 7.75 2.36649 11.3774 
585 2 -0.259868 7.75 0.73351 11.3774 
775 1 0.519737 7.75 1.55 13.9 
776 2 -0.259868 7.75 2.36649 14.4774 
777 2 -0.259868 7.75 0.73351 14.4774 
967 1 0.519737 7.75 1.55 17 
968 2 -0.259868 7.75 2.36649 17.5774 
969 2 -0.259868 7.75 0.73351 17.5774 
1159 1 0.519737 7.75 1.55 20.1 
1160 2 -0.259868 7.75 2.36649 20.6774 
1161 2 -0.259868 7.75 0.73351 20.6774 
1351 1 0.519737 7.75 1.55 23.2 
1352 2 -0.259868 7.75 2.36649 23.7774 
1353 2 -0.259868 7.75 0.73351 23.7774 
31 1 0.519737 7.75 4.65 1.5 
32 2 -0.259868 7.75 5.46649 2.07736 
33 2 -0.259868 7.75 3.83351 2.07736 
223 1 0.519737 7.75 4.65 4.6 
224 2 -0.259868 7.75 5.46649 5.17736 
225 2 -0.259868 7.75 3.83351 5.17736 
415 1 0.519737 7.75 4.65 7.7 
416 2 -0.259868 7.75 5.46649 8.27736 
417 2 -0.259868 7.75 3.83351 8.27736 
607 1 0.519737 7.75 4.65 10.8 
608 2 -0.259868 7.75 5.46649 11.3774 
609 2 -0.259868 7.75 3.83351 11.3774 
799 1 0.519737 7.75 4.65 13.9 
800 2 -0.259868 7.75 5.46649 14.4774 
801 2 -0.259868 7.75 3.83351 14.4774 
991 1 0.519737 7.75 4.65 17 
992 2 -0.259868 7.75 5.46649 17.5774 
993 2 -0.259868 7.75 3.83351 17.5774 
1183 1 0.519737 7.75 4.65 20.1 
1184 2 -0.259868 7.75 5.46649 20.6774 
1185 2 -0.259868 7.75 3.83351 20.6774 
1375 1 0.519737 7.75 4.65 23.2 
1376 2 -0.259868 7.75 5.46649 23.7774 
1377 2 -0.259868 7.75 3.83351 23.7774 
55 1 0.519737 7.75 7.75 1.5 
56 2 -0.259868 7.75 8.56649 2.07736 
57 2 -0.259868 7.75 6.93351 2.07736 
247 1 0.519737 7.75 7.75 4.6 
248 2 -0.259868 7.75 8.56649 5.17736 
249 2 -0.259868 7.75 6.93351 5.17736 
439 1 0.519737 7.75 7.75 7.7 
440 2 -0.259868 7.75 8.56649 8.27736 
441 2 -0.259868 7.75 6.93351 8.27736 
631 1 0.519737 7.75 7.75 10.8 
632 2 -0.259868 7.75 8.56649 11.3774 
633 2 -0.259868 7.75 6.93351 11.3774 
823 1 0.519737 7.75 7.75 13.9 
824 2 -0.259868 7.75 8.56649 14.4774 
825 2 -0.259868 7.75 6.93351 14.4774 
1015 1 0.519737 7.75 7.75 17 
1016 2 -0.259868 7.75 8.56649 17.5774 
1017 2 -0.259868 7.75 6.93351 17.5774 
1207 1 0.519737 7.75 7.75 20.1 
1208 2 -0.259868 7.75 8.56649 20.6774 
1209 2 -0.259868 7.75 6.93351 20.6774 
1399 1 0.519737 7.75 7.75 23.2 
1400 2 -0.259868 7.75 8.56649 23.7774 
1401 2 -0.259868 7.75 6.93351 23.7774 
79 1 0.519737 7.75 10.85 1.5 
80 2 -0.259868 7.75 11.6665 2.07736 
81 2 -0.259868 7.75 10.0335 2.07736 
271 1 0.519737 7.75 10.85 4.6 
272 2 -0.259868 7.75 11.6665 5.17736 
273 2 -0.259868 7.75 10.0335 5.17736 
463 1 0.519737 7.75 10.85 7.7 
464 2 -0.259868 7.75 11.6665 8.27736 
465 2 -0.259868 7.75 10.0335 8.27736 
655 1 0.519737 7.75 10.85 10.8 
656 2 -0.259868 7.75 11.6665 11.3774 
657 2 -0.259868 7.75 10.0335 11.3774 
847 1 0.519737 7.75 10.85 13.9 
848 2 -0.259868 7.75 11.6665 14.4774 
849 2 -0.259868 7.75 10.0335 14.4774 
1039 1 0.519737 7.75 10.85 17 
1040 2 -0.259868 7.75 11.6665 17.5774 
1041 2 -0.259868 7.75 10.0335 17.5774 
1231 1 0.519737 7.75 10.85 20.1 
1232 2 -0.259868 7.75 11.6665 20.6774 
1233 2 -0.259868 7.75 10.0335 20.6774 
1423 1 0.519737 7.75 10.85 23.2 
1424 2 -0.259868 7.75 11.6665 23.7774 
1425 2 -0.259868 7.75 10.0335 23.7774 
103 1 0.519737 7.75 13.95 1.5 
104 2 -0.259868 7.75 14.7665 2.07736 
105 2 -0.259868 7.75 13.1335 2.07736 
295 1 0.519737 7.75 13.95 4.6 
296 2 -0.259868 7.75 14.7665 5.17736 
297 2 -0.259868 7.75 13.1335 5.17736 
487 1 0.519737 7.75 13.95 7.7 
488 2 -0.259868 7.75 14.7665 8.27736 
489 2 -0.259868 7.75 13.1335 8.27736 
679 1 0.519737 7.75 13.95 10.8 
680 2 -0.259868 7.75 14.7665 11.3774 
681 2 -0.259868 7.75 13.1335 11.3774 
871 1 0.519737 7.75 13.95 13.9 
872 2 -0.259868 7.75 14.7665 14.4774 
873 2 -0.259868 7.75 13.1335 14.4774 
1063 1 0.519737 7.75 13.95 17 
1064 2 -0.259868 7.75 14.7665 17.5774 
1065 2 -0.259868 7.75 13.1335 17.5774 
1255 1 0.519737 7.75 13.95 20.1 
1256 2 -0.259868 7.75 14.7665 20.6774 
1257 2 -0.259868 7.75 13.1335 20.6774 
1447 1 0.519737 7.75 13.95 23.2 
1448 2 -0.259868 7.75 14.7665 23.7774 
1449 2 -0.259868 7.75 13.1335 23.7774 
127 1 0.519737 7.75 17.05 1.5 
128 2 -0.259868 7.75 17.8665 2.07736 
129 2 -0.259868 7.75 16.2335 2.07736 
319 1 0.519737 7.75 17.05 4.6 
320 2 -0.259868 7.75 17.8665 5.17736 
321 2 -0.259868 7.75 16.2335 5.17736 
511 1 0.519737 7.75 17.05 7.7 
512 2 -0.259868 7.75 17.8665 8.27736 
513 2 -0.259868 7.75 16.2335 8.27736 
703 1 0.519737 7.75 17.05 10.8 
704 2 -0.259868 7.75 17.8665 11.3774 
705 2 -0.259868 7.75 16.2335 11.3774 
895 1 0.519737 7.75 17.05 13.9 
896 2 -0.259868 7.75 17.8665 14.4774 
897 2 -0.259868 7.75 16.2335 14.4774 
1087 1 0.519737 7.75 17.05 17 
1088 2 -0.259868 7.75 17.8665 17.5774 
1089 2 -0.259868 7.75 16.2335 17.5774 
1279 1 0.519737 7.75 17.05 20.1 
1280 2 -0.259868 7.75 17.8665 20.6774 
1281 2 -0.259868 7.75 16.2335 20.6774 
1471 1 0.519737 7.75 17.05 23.2 
1472 2 -0.259868 7.75 17.8665 23.7774 
1473 2 -0.259868 7.75 16.2335 23.7774 
151 1 0.519737 7.75 20.15 1.5 
152 2 -0.259868 7.75 20.9665 2.07736 
153 2 -0.259868 7.75 19.3335 2.07736 
343 1 0.519737 7.75 20.15 4.6 
344 2 -0.259868 7.75 20.9665 5.17736 
345 2 -0.259868 7.75 19.3335 5.17736 
535 1 0.519737 7.75 20.15 7.7 
536 2 -0.259868 7.75 20.9665 8.27736 
537 2 -0.259868 7.75 19.3335 8.27736 
727 1 0.519737 7.75 20.15 10.8 
728 2 -0.259868 7.75 20.9665 11.3774 
729 2 -0.259868 7.75 19.3335 11.3774 
919 1 0.519737 7.75 20.15 13.9 
920 2 -0.259868 7.75 20.9665 14.4774 
921 2 -0.259868 7.75 19.3335 14.4774 
1111 1 0.519737 7.75 20.15 17 
1112 2 -0.259868 7.75 20.9665 17.5774 
1113 2 -0.259868 7.75 19.3335 17.5774 
1303 1 0.519737 7.75 20.15 20.1 
1304 2 -0.259868 7.75 20.9665 20.6774 
1305 2 -0.259868 7.75 19.3335 20.6774 
1495 1 0.519737 7.75 20.15 23.2 
1496 2 -0.259868 7.75 20.9665 23.7774 
1497 2 -0.259868 7.75 19.3335 23.7774 
175 1 0.519737 7.75 23.25 1.5 
176 2 -0.259868 7.75 24.0665 2.07736 
177 2 -0.259868 7.75 22.4335 2.07736 
367 1 0.519737 7.75 23.25 4.6 
368 2 -0.259868 7.75 24.0665 5.17736 
369 2 -0.259868 7.75 22.4335 5.17736 
559 1 0.519737 7.75 23.25 7.7 
560 2 -0.259868 7.75 24.0665 8.27736 
561 2 -0.259868 7.75 22.4335 8.27736 
751 1 0.519737 7.75 23.25 10.8 
752 2 -0.259868 7.75 24.0665 11.3774 
753 2 -0.259868 7.75 22.4335 11.3774 
943 1 0.519737 7.75 23.25 13.9 
944 2 -0.259868 7.75 24.0665 14.4774 
945 2 -0.259868 7.75 22.4335 14.4774 
1135 1 0.519737 7.75 23.25 17 
1136 2 -0.259868 7.75 24.0665 17.5774 
1137 2 -0.259868 7.75 22.4335 17.5774 
1327 1 0.519737 7.75 23.25 20.1 
1328 2 -0.259868 7.75 24.0665 20.6774 
1329 2 -0.259868 7.75 22.4335 20.6774 
1519 1 0.519737 7.75 23.25 23.2 
1520 2 -0.259868 7.75 24.0665 23.7774 
1521 2 -0.259868 7.75 22.4335 23.7774 
10 1 0.519737 10.85 1.55 1.5 
11 2 -0.259868 10.85 2.36649 2.07736 
12 2 -0.259868 10.85 0.73351 2.07736 
202 1 0.519737 10.85 1.55 4.6 
203 2 -0.259868 10.85 2.36649 5.17736 
204 2 -0.259868 10.85 0.73351 5.17736 
394 1 0.519737 10.85 1.55 7.7 
395 2 -0.259868 10.85 2.36649 8.27736 
396 2 -0.259868 10.85 0.73351 8.27736 
586 1 0.519737 10.85 1.55 10.8 
587 2 -0.259868 10.85 2.36649 11.3774 
588 2 -0.259868 10.85 0.73351 11.3774 
778 1 0.519737 10.85 1.55 13.9 
779 2 -0.259868 10.85 2.36649 14.4774 
780 2 -0.259868 10.85 0.73351 14.4774 
970 1 0.519737 10.85 1.55 17 
971 2 -0.259868 10.85 2.36649 17.5774 
972 2 -0.259868 10.85 0.73351 17.5774 
1162 1 0.519737 10.85 1.55 20.1 
1163 2 -0.259868 10.85 2.36649 20.6774 
1164 2 -0.259868 10.85 0.73351 20.6774 
1354 1 0.519737 10.85 1.55 23.2 
1355 2 -0.259868 10.85 2.36649 23.7774 
1356 2 -0.259868 10.85 0.73351 23.7774 
34 1 0.519737 10.85 4.65 1.5 
35 2 -0.259868 10.85 5.46649 2.07736 
36 2 -0.259868 10.85 3.83351 2.07736 
226 1 0.519737 10.85 4.65 4.6 
227 2 -0.259868 10.85 5.46649 5.17736 
228 2 -0.259868 10.85 3.83351 5.17736 
418 1 0.519737 10.85 4.65 7.7 
419 2 -0.259868 10.85 5.46649 8.27736 
420 2 -0.259868 10.85 3.83351 8.27736 
610 1 0.519737 10.85 4.65 10.8 
611 2 -0.259868 10.85 5.46649 11.3774 
612 2 -0.259868 10.85 3.83351 11.3774 
802 1 0.519737 10.85 4.65 13.9 
803 2 -0.259868 10.85 5.46649 14.4774 
804 2 -0.259868 10.85 3.83351 14.4774 
994 1 0.519737 10.85 4.65 17 
995 2 -0.259868 10.85 5.46649 17.5774 
996 2 -0.259868 10.85 3.83351 17.5774 
1186 1 0.519737 10.85 4.65 20.1 
1187 2 -0.259868 10.85 5.46649 20.6774 
1188 2 -0.259868 10.85 3.83351 20.6774 
1378 1 0.519737 10.85 4.65 23.2 
1379 2 -0.259868 10.85 5.46649 23.7774 
1380 2 -0.259868 10.85 3.83351 23.7774 
58 1 0.519737 10.85 7.75 1.5 
59 2 -0.259868 10.85 8.56649 2.07736 
60 2 -0.259868 10.85 6.93351 2.07736 
250 1 0.519737 10.85 7.75 4.6 
251 2 -0.259868 10.85 8.56649 5.17736 
252 2 -0.259868 10.85 6.93351 5.17736 
442 1 0.519737 10.85 7.75 7.7 
443 2 -0.259868 10.85 8.56649 8.27736 
444 2 -0.259868 10.85 6.93351 8.27736 
634 1 0.519737 10.85 7.75 10.8 
635 2 -0.259868 10.85 8.56649 11.3774 
636 2 -0.259868 10.85 6.93351 11.3774 
826 1 0.519737 10.85 7.75 13.9 
827 2 -0.259868 10.85 8.56649 14.4774 
828 2 -0.259868 10.85 6.93351 14.4774 
1018 1 0.519737 10.85 7.75 17 
1019 2 -0.259868 10.85 8.56649 17.5774 
1020 2 -0.259868 10.85 6.93351 17.5774 
1210 1 0.519737 10.85 7.75 20.1 
1211 2 -0.259868 10.85 8.56649 20.6774 
1212 2 -0.259868 10.85 6.93351 20.6774 
1402 1 0.519737 10.85 7.75 23.2 
1403 2 -0.259868 10.85 8.56649 23.7774 
1404 2 -0.259868 10.85 6.93351 23.7774 
82 1 0.519737 10.85 10.85 1.5 
83 2 -0.259868 10.85 11.6665 2.07736 
84 2 -0.259868 10.85 10.0335 2.07736 
274 1 0.519737 10.85 10.85 4.6 
275 2 -0.259868 10.85 11.6665 5.17736 
276 2 -0.259868 10.85 10.0335 5.17736 
466 1 0.519737 10.85 10.85 7.7 
467 2 -0.259868 10.85 11.6665 8.27736 
468 2 -0.259868 10.85 10.0335 8.27736 
658 1 0.519737 10.85 10.85 10.8 
659 2 -0.259868 10.85 11.6665 11.3774 
660 2 -0.259868 10.85 10.0335 11.3774 
850 1 0.519737 10.85 10.85 13.9 
851 2 -0.259868 10.85 11.6665 14.4774 
852 2 -0.259868 10.85 10.0335 14.4774 
1042 1 0.519737 10.85 10.85 17 
1043 2 -0.259868 10.85 11.6665 17.5774 
1044 2 -0.259868 10.85 10.0335 17.5774 
1234 1 0.519737 10.85 10.85 20.1 
1235 2 -0.259868 10.85 11.6665 20.6774 
1236 2 -0.259868 10.85 10.0335 20.6774 
1426 1 0.519737 10.85 10.85 23.2 
1427 2 -0.259868 10.85 11.6665 23.7774 
1428 2 -0.259868 10.85 10.0335 23.7774 
106 1 0.519737 10.85 13.95 1.5 
107 2 -0.259868 10.85 14.7665 2.07736 
108 2 -0.259868 10.85 13.1335 2.07736 
298 1 0.519737 10.85 13.95 4.6 
299 2 -0.259868 10.85 14.7665 5.17736 
300 2 -0.259868 10.85 13.1335 5.17736 
490 1 0.519737 10.85 13.95 7.7 
491 2 -0.259868 10.85 14.7665 8.27736 
492 2 -0.259868 10.85 13.1335 8.27736 
682 1 0.519737 10.85 13.95 10.8 
683 2 -0.259868 10.85 14.7665 11.3774 
684 2 -0.259868 10.85 13.1335 11.3774 
874 1 0.519737 10.85 13.95 13.9 
875 2 -0.259868 10.85 14.7665 14.4774 
876 2 -0.259868 10.85 13.1335 14.4774 
1066 1 0.519737 10.85 13.95 17 
1067 2 -0.259868 10.85 14.7665 17.5774 
1068 2 -0.259868 10.85 13.1335 17.5774 
1258 1 0.519737 10.85 13.95 20.1 
1259 2 -0.259868 10.85 14.7665 20.6774 
1260 2 -0.259868 10.85 13.1335 20.6774 
1450 1 0.519737 10.85 13.95 23.2 
1451 2 -0.259868 10.85 14.7665 23.7774 
1452 2 -0.259868 10.85 13.1335 23.7774 
130 1 0.519737 10.85 17.05 1.5 
131 2 -0.259868 10.85 17.8665 2.07736 
132 2 -0.259868 10.85 16.2335 2.07736 
322 1 0.519737 10.85 17.05 4.6 
323 2 -0.259868 10.85 17.8665 5.17736 
324 2 -0.259868 10.85 16.2335 5.17736 
514 1 0.519737 10.85 17.05 7.7 
515 2 -0.259868 10.85 17.8665 8.27736 
516 2 -0.259868 10.85 16.2335 8.27736 
706 1 0.519737 10.85 17.05 10.8 
707 2 -0.259868 10.85 17.8665 11.3774 
708 2 -0.259868 10.85 16.2335 11.3774 
898 1 0.519737 10.85 17.05 13.9 
899 2 -0.259868 10.85 17.8665 14.4774 
900 2 -0.259868 10.85 16.2335 14.4774 
1090 1 0.519737 10.85 17.05 17 
1091 2 -0.259868 10.85 17.8665 17.5774 
1092 2 -0.259868 10.85 16.2335 17.5774 
1282 1 0.519737 10.85 17.05 20.1 
1283 2 -0.259868 10.85 17.8665 20.6774 
1284 2 -0.259868 10.85 16.2335 20.6774 
1474 1 0.519737 10.85 17.05 23.2 
1475 2 -0.259868 10.85 17.8665 23.7774 
1476 2 -0.259868 10.85 16.2335 23.7774 
154 1 0.519737 10.85 20.15 1.5 
155 2 -0.259868 10.85 20.9665 2.07736 
156 2 -0.259868 10.85 19.3335 2.07736 
346 1 0.519737 10.85 20.15 4.6 
347 2 -0.259868 10.85 20.9665 5.17736 
348 2 -0.259868 10.85 19.3335 5.17736 
538 1 0.519737 10.85 20.15 7.7 
539 2 -0.259868 10.85 20.9665 8.27736 
540 2 -0.259868 10.85 19.3335 8.27736 
730 1 0.519737 10.85 20.15 10.8 
731 2 -0.259868 10.85 20.9665 11.3774 
732 2 -0.259868 10.85 19.3335 11.3774 
922 1 0.519737 10.85 20.15 13.9 
923 2 -0.259868 10.85 20.9665 14.4774 
924 2 -0.259868 10.85 19.3335 14.4774 
1114 1 0.519737 10.85 20.15 17 
1115 2 -0.259868 10.85 20.9665 17.5774 
1116 2 -0.259868 10.85 19.3335 17.5774 
1306 1 0.519737 10.85 20.15 20.1 
1307 2 -0.259868 10.85 20.9665 20.6774 
1308 2 -0.259868 10.85 19.3335 20.6774 
1498 1 0.519737 10.85 20.15 23.2 
1499 2 -0.259868 10.85 20.9665 23.7774 
1500 2 -0.259868 10.85 19.3335 23.7774 
178 1 0.519737 10.85 23.25 1.5 
179 2 -0.259868 10.85 24.0665 2.07736 
180 2 -0.259868 10.85 22.4335 2.07736 
370 1 0.519737 10.85 23.25 4.6 
371 2 -0.259868 10.85 24.0665 5.17736 
372 2 -0.259868 10.85 22.4335 5.17736 
562 1 0.519737 10.85 23.25 7.7 
563 2 -0.259868 10.85 24.0665 8.27736 
564 2 -0.259868 10.85 22.4335 8.27736 
754 1 0.519737 10.85 23.25 10.8 
755 2 -0.259868 10.85 24.0665 11.3774 
756 2 -0.259868 10.85 22.4335 11.3774 
946 1 0.519737 10.85 23.25 13.9 
947 2 -0.259868 10.85 24.0665 14.4774 
948 2 -0.259868 10.85 22.4335 14.4774 
1138 1 0.519737 10.85 23.25 17 
1139 2 -0.259868 10.85 24.0665 17.5774 
1140 2 -0.259868 10.85 22.4335 17.5774 
1330 1 0.519737 10.85 23.25 20.1 
1331 2 -0.259868 10.85 24.0665 20.6774 
1332 2 -0.259868 10.85 22.4335 20.6774 
1522 1 0.519737 10.85 23.25 23.2 
1523 2 -0.259868 10.85 24.0665 23.7774 
1524 2 -0.259868 10.85 22.4335 23.7774 
13 1 0.519737 13.95 1.55 1.5 
14 2 -0.259868 13.95 2.36649 2.07736 
15 2 -0.259868 13.95 0.73351 2.07736 
205 1 0.519737 13.95 1.55 4.6 
206 2 -0.259868 13.95 2.36649 5.17736 
207 2 -0.259868 13.95 0.73351 5.17736 
397 1 0.519737 13.95 1.55 7.7 
398 2 -0.259868 13.95 2.36649 8.27736 
399 2 -0.259868 13.95 0.73351 8.27736 
589 1 0.519737 13.95 1.55 10.8 
590 2 -0.259868 13.95 2.36649 11.3774 
591 2 -0.259868 13.95 0.73351 11.3774 
781 1 0.519737 13.95 1.55 13.9 
782 2 -0.259868 13.95 2.36649 14.4774 
783 2 -0.259868 13.95 0.73351 14.4774 
973 1 0.519737 13.95 1.55 17 
974 2 -0.259868 13.95 2.36649 17.5774 
975 2 -0.259868 13.95 0.73351 17.5774 
1165 1 0.519737 13.95 1.55 20.1 
1166 2 -0.259868 13.95 2.36649 20.6774 
1167 2 -0.259868 13.95 0.73351 20.6774 
1357 1 0.519737 13.95 1.55 23.2 
1358 2 -0.259868 13.95 2.36649 23.7774 
1359 2 -0.259868 13.95 0.73351 23.7774 
37 1 0.519737 13.95 4.65 1.5 
38 2 -0.259868 13.95 5.46649 2.07736 
39 2 -0.259868 13.95 3.83351 2.07736 
229 1 0.519737 13.95 4.65 4.6 
230 2 -0.259868 13.95 5.46649 5.17736 
231 2 -0.259868 13.95 3.83351 5.17736 
421 1 0.519737 13.95 4.65 7.7 
422 2 -0.259868 13.95 5.46649 8.27736 
423 2 -0.259868 13.95 3.83351 8.27736 
613 1 0.519737 13.95 4.65 10.8 
614 2 -0.259868 13.95 5.46649 11.3774 
615 2 -0.259868 13.95 3.83351 11.3774 
805 1 0.519737 13.95 4.65 13.9 
806 2 -0.259868 13.95 5.46649 14.4774 
807 2 -0.259868 13.95 3.83351 14.4774 
997 1 0.519737 13.95 4.65 17 
998 2 -0.259868 13.95 5.46649 17.5774 
999 2 -0.259868 13.95 3.83351 17.5774 
1189 1 0.519737 13.95 4.65 20.1 
1190 2 -0.259868 13.95 5.46649 20.6774 
1191 2 -0.259868 13.95 3.83351 20.6774 
1381 1 0.519737 13.95 4.65 23.2 
1382 2 -0.259868 13.95 5.46649 23.7774 
1383 2 -0.259868 13.95 3.83351 23.7774 
61 1 0.519737 13.95 7.75 1.5 
62 2 -0.259868 13.95 8.56649 2.07736 
63 2 -0.259868 13.95 6.93351 2.07736 
253 1 0.519737 13.95 7.75 4.6 
254 2 -0.259868 13.95 8.56649 5.17736 